  7680  
# coordinates :      7680 species - step  0
 RN1    70.47443638391196  18.94840585376214  51.845403502424226
 RN1    41.1955165689498  30.50869974708336  39.19634397411017
 RN1    69.76604163763226  18.9920594326615  40.14373598315367
 RN1    9.80877837920527  21.86592842512461  68.49949688783667
 RN1    50.7391642175097  15.42807636095138  87.63918170046118
 RN1    31.75831892639593  45.62660406129844  40.31606738377553
 RN1    33.78925269910575  0.6214536601455686  50.38042457041908
 RN1    32.9268119143721  44.75616612383877  62.60902010653992
 RN1    54.76682239945917  35.60091707926551  46.70984534507877
 RN1    5.368783423736422  10.52461227765618  72.1017454023583
 RN1    52.54120602052022  10.58999810229595  70.71579347028998
 RN1    12.0431665889474  29.79843521267382  32.77932109223128
 RN1    20.30637960023832  53.10953075685881  45.34442306436737
 RN1    50.404181861291  66.584805471706  84.2544761051074
 RN1    47.94614308787229  36.84482431849368  74.51203885271912
 RN1    65.79988261410914  53.84694183719282  66.59346580868785
 RN1    20.54365745207959  18.53781705083165  29.75135715984192
 RN1    43.53244076497299  40.57235722701489  61.53929476474079
 RN1    66.60023021719827  28.11484432591176  58.42213763035647
 RN1    42.98456243064809  20.07488012022721  45.21041483104722
 RN1    27.36402758769968  57.4340188583828  87.53813773517585
 RN1    48.05671470570709  21.87159011634059  35.27167740162839
 RN1    63.04126369226469  46.06972406025117  88.35435259718605
 RN1    27.85627110483636  5.473142987748703  83.70359409271026
 RN1    31.12922367816056  12.78875933893787  52.95070009900311
 RN1    22.41559824298634  46.11518900546648  75.73091987931983
 RN1    50.40846026901316  24.40601598829006  58.850826270631906
 RN1    16.06529181939242  21.81614538654904  62.13654885128535
 RN1    56.64777035606252  27.92240477769777  84.14517505237019
 RN1    57.87470523179634  4.397579508194442  85.61602909750644
 RN1    56.37881753554501  15.11926640841381  62.314320465200225
 RN1    42.83902058441242  19.83706662529195  28.129604158441538
 RN1    3.056254679290463  59.34455221230205  83.87156719551845
 RN1    31.59353889779471  67.78472819085007  24.87315825952328
 RN1    66.32448080683088  34.8547213928847  46.82181577437236
 RN1    16.68886447233767  41.22741951118226  63.205681381468445
 RN1    23.89460550238316  1.257547164714331  30.14231420078032
 RN1    11.27044941145805  49.8816961486005  73.62100614005233
 RN1    42.4342763405109  29.01692717021621  89.00061432155053
 RN1    43.67488080086074  48.55134170503933  38.51829576846063
 RN1    64.46441384571527  32.72541131748304  73.07171846471415
 RN1    70.92070910796123  57.71171731847772  22.22003816539367
 RN1    13.57375824164537  67.41551219988696  38.66260624273413
 RN1    50.84699043844821  51.60567415000425  76.60438533651057
 RN1    70.44533635300017  65.25769853387804  67.14848061611593
 RN1    53.17549364463085  68.49248835572116  24.73733710394491
 RN1    67.15843179541397  21.11741094624033  65.24237391863181
 RN1    67.45660302335014  2.723118532373841  84.10050688057484
 RN1    49.19298107538057  49.75671738866983  23.036130283909152
 RN1    4.788647785084244  5.847931986127681  30.28720472338474
 RN1    12.71298183001246  12.63273525253353  29.399420392169056
 RN1    43.26728931525373  60.51014096712923  41.17609618959837
 RN1    6.353824337706738  36.24076299715798  46.67587242259777
 RN1    32.05781312071674  35.75553362187076  46.57246343326361
 RN1    8.091880333820427  59.61886765624519  73.35793575903746
 RN1    7.179714787187604  68.46638613569422  80.4032762386195
 RN1    9.655465495895784  3.201183274585959  90.76274828903074
 RN1    40.98124677406008  24.90505937231008  72.45253669781316
 RN1    32.75078078048278  19.25626998972568  25.848256457509578
 RN1    70.98281003917248  42.51056951102635  57.50885347922363
 RN1    51.76189179632034  60.56679558621218  73.44093145596428
 RN1    35.10935793639317  18.24671103130346  69.15017483914718
 RN1    65.58140643427085  66.92111726443774  26.15447673166198
 RN1    41.59543753366516  46.0721751174721  46.82566721941278
 RN1    0.4680530941198033  10.46713493261068  43.87748655074997
 RN1    20.20926844805523  8.04848392795171  20.191724561282953
 RN1    52.56047451018268  6.024976854226689  38.91662457146641
 RN1    31.84293683557305  21.79176039269274  78.7295548737188
 RN1    55.92933442579044  39.73502870400839  57.948576328535175
 RN1    31.48630581527217  42.05473374132704  73.42869416914397
 RN1    22.59745814181857  22.46126320414136  38.96265428916639
 RN1    24.05328671136417  48.96733163296352  28.838100063434034
 RN1    54.69477785390946  26.84296379903791  71.94677367632308
 RN1    20.89932920977876  35.75655229255388  26.181988441864632
 RN1    60.06372821297007  48.59667967902895  25.09185032773428
 RN1    38.16780610447593  55.09089634170581  26.664253065430252
 RN1    2.792617216922326  27.64310541892575  34.9926270543073
 RN1    29.18858011165473  0.03708724291830934  76.21574465633525
 RN1    56.29076735834306  42.88062381581236  81.42967315250998
 RN1    6.444809663584693  47.26948539594868  27.157301177787787
 RN1    68.34714833308443  1.584683074086744  52.019298175488636
 RN1    70.13981335111217  44.60988302419978  82.88690741488162
 RN1    32.84980390310283  22.16152463260335  53.139512174366025
 RN1    55.85628383984591  40.10469274234114  35.71399276721261
 RN1    58.14566752072005  44.04478632016696  69.5263248760053
 RN1    19.35299492206916  38.7070741536899  79.87617514005257
 RN1    49.34984764639748  69.39033221581863  52.391037861030256
 RN1    43.70535023483882  40.19881461929639  84.20350935681175
 RN1    15.57445710944244  23.57871567137464  82.20332200147507
 RN1    43.58657932472995  60.33176248099795  60.173865688902886
 RN1    7.115835249925609  60.66941086260871  37.30467846466628
 RN1    68.60645090092288  33.30291578602353  89.04081915833987
 RN1    69.0619706559025  7.680318717087172  71.72648185755915
 RN1    60.06658313533019  5.938850603217642  45.42474804761816
 RN1    25.30215563086277  27.62269992404507  90.35947031557023
 RN1    41.99755863598339  14.06448175711691  61.777253799434796
 RN1    7.12067850664111  19.86890945726681  85.66952088069328
 RN1    69.15149472045238  55.74678830456688  31.09928296501738
 RN1    47.93322260568855  35.52441887665089  34.14917330186774
 RN1    49.71600449472739  54.43602126756554  51.72475198067306
 RN1    13.88178697037468  26.12420714047334  44.83993677611254
 RN1    65.1482353650758  57.87104226277525  77.86159521727238
 RN1    14.5576752722798  9.385398015129182  39.55967031210159
 RN1    31.03129445200572  5.418053425951551  39.13114452368179
 RN1    62.57739490233262  64.88448779225212  60.2992039410611
 RN1    29.42267655619582  28.58832612542769  40.28139808046636
 RN1    26.45257626329136  10.36804676831444  63.34052261363026
 RN1    14.4014929439518  58.4525781769628  23.37128462269252
 RN1    7.013350466863092  47.84445743784212  60.37970427480015
 RN1    11.06402143253912  6.126017555100892  62.536740448215674
 RN1    56.01746147295999  56.65883736764309  87.20510187022877
 RN1    57.71259584363034  16.63789938169803  78.83210402763474
 RN1    13.05219866852576  67.20317827580048  69.31503121505173
 RN1    61.63908402665321  63.8777473722157  49.01331669915514
 RN1    24.29490525798448  29.92579045445794  67.16412045675094
 RN1    3.416650455859579  36.83043699763428  27.6664519296506
 RN1    12.47176234924934  45.02388567407061  32.52284999262763
 RN1    11.89576571294228  42.95707539563404  87.36255852654568
 RN1    22.34291953543023  7.90730180198347  52.771554052289915
 RN1    57.32950859213192  6.860172093468944  29.20703513590211
 RN1    34.25904768574957  7.54203670082093  69.66818889340854
 RN1    37.5333299290748  22.01051976483463  85.41618459342298
 RN1    41.67170604780589  40.34892835399417  52.81330683615281
 RN1    20.65272181513958  64.58638806137844  81.53557276601221
 RN1    18.56271876965918  39.38362889674645  37.32660346306541
 RN1    69.2544759490202  23.97044295973416  81.48804483498117
 RN1    24.63247211365075  63.60548809664955  51.1553541306222
 RN1    36.14507800530028  2.403298757522012  61.25061320332239
 RN1    5.750539957783826  33.78445385108344  60.51297121923332
 RN1    60.69673391353329  45.2781367628258  45.12871900134819
 RN1    60.85554696728013  22.93565697578601  35.57830406427159
 RN1    69.92052623535871  45.25294706009169  35.85470113341294
 RN1    40.97278925540491  9.56215353006047  50.18124144402308
 RN1    25.37079675932204  67.99572595196149  64.25496367765187
 RN1    42.13752220599342  61.24407822686135  88.62311919846692
 RN1    63.41753612771578  52.56981949610896  56.3247751601627
 RN1    45.57093437265014  15.48121310874418  72.48209690750245
 RN1    61.23797247135204  70.13820568871759  74.093607344075
 RN1    5.075644095878525  58.88673437758486  52.27133984462118
 RN1    21.6783329126713  54.54057178935106  63.0490134637508
 RN1    3.257534149417942  40.8098384790659  71.64281445546361
 RN1    41.0053025709401  9.195297819683352  36.80533790181954
 RN1    55.30293508267911  68.26800104021432  61.78407548956844
 RN1    48.29988059762149  2.910746572927407  64.29009869720551
 RN1    32.32290643879447  65.45464498312262  40.92543666104497
 RN1    35.8339132236899  40.09718590333898  88.86489126756943
 RN1    56.91215872992239  27.82815577634293  45.51611918167709
 RN1    44.26349875532475  0.4468651960348352  76.13156937656356
 RN1    31.13106671304719  30.70549316995064  60.27144099855462
 RN1    11.57080249391991  14.87079248343249  53.22710416987694
 RN1    58.11643184403414  31.97865726099121  22.488354669708603
 RN1    33.82924842503753  56.29637521091697  50.07763282183587
 RN1    29.93436364026746  14.31220741148938  33.97676868251476
 RN1    1.564951252842316  11.26096598749951  85.15617393983692
 RN1    39.93499478727148  51.29820374042375  78.37085638178952
 RN1    49.65023489457112  51.91466581809993  61.718165720511045
 RN1    43.23455093366047  9.477136672167163  85.62882211994904
 RN1    10.67023694990018  46.15354553987974  48.80384766230135
 RN1    13.15213144736539  7.568491917199145  78.79419837784314
 RN1    55.83433508788731  15.42944186941126  50.7932632256924
 RN1    62.4916991146749  8.899325487945296  57.44323772347826
 RN1    29.37595988274264  58.27817437601  74.04537976317214
 RN1    34.20718892111476  32.28484589067808  27.474735930110096
 RN1    15.54781912396347  53.08106990256016  85.71037219721114
 RN1    66.00960447567309  0.2738164705333007  37.31891956384592
 RN1    57.19058135047972  33.26756459781409  64.4926844020701
 RN1    66.98958116795889  51.14554123660756  46.08613897152233
 RN1    60.64006250870627  16.25664474641572  24.113410556071244
 RN1    36.36935452383225  65.77978390219747  82.9146385196162
 RN1    50.9764950520703  61.2473901741165  28.98357534204458
 RN1    52.02831025981163  36.65189085004943  24.8165984802652
 RN1    18.55568840904383  34.09494869759841  52.76619373036213
 RN1    43.32501436566752  7.597037738356286  26.374800264762758
 RN1    34.50223590812718  43.37780607119493  30.574443126272612
 RN1    1.203964720377342  25.1449279183763  23.745416350398994
 RN1    37.54203777259635  34.93238137132186  73.34589268583815
 RN1    27.92428098092986  44.30202013131498  88.04757974405061
 RN1    27.26287169119938  57.37840604797071  29.096459913563372
 RN1    56.99414825844462  62.74820368489017  42.44667985314852
 RN1    13.39339506285774  58.35797805987482  60.793620647921
 RN1    21.80356482077678  23.22607134323859  49.35340810387241
 RN1    70.75592999961144  15.95375612729316  28.14085076070489
 RN1    22.74143124043215  29.9504241180989  78.09990845186242
 RN1    11.97329072534109  34.91886906438697  70.51501217052349
 RN1    13.79951425061952  66.49383531366763  26.33271297568277
 RN1    35.32640697455765  7.855988469964987  21.269102515917805
 RN1    30.50655392670697  56.87411293162904  61.46544241150627
 RN1    6.664957115664556  24.2108150937793  74.97893050403059
 RN1    18.56933913969725  12.58539663661649  70.7303211558664
 RN1    40.75907127843534  29.18943060925529  54.56098788348084
 RN1    23.25656003623085  18.24357827833779  88.25794855638836
 RN1    40.04536682522605  59.94511622028525  70.54686748267233
 RN1    23.24955962051744  43.93364093312753  54.73996478565679
 RN1    17.98606325607769  70.61091886279517  49.89245760016443
 RN1    45.94829292489913  70.38489006572728  43.26145917678597
 RN1    10.45950096361636  33.75318029302363  20.121448182415527
 RN1    24.02647828631767  58.56213585733125  39.7582560460804
 RN1    4.108608710898687  27.05118935016423  48.3512540550789
 RN1    54.06907381493546  53.81382294304509  34.13182144950454
 RN1    6.787910812723798  0.2239269151231558  49.26160373646736
 RC2    1.008838545478343  18.33197578640748  53.635402877194515
 RC2    42.29578086145474  31.83799150836456  41.0743300907518
 RC2    67.37326189614606  18.96684813262636  40.95946327779222
 RC2    7.728550306372122  20.88330197360362  67.58963395640504
 RC2    50.49384039857505  16.25413050591579  89.9506132278428
 RC2    29.79814394769369  44.2315783974035  40.90600583371557
 RC2    36.1139022911936  70.9087078623486  50.20927126022066
 RC2    32.53364266942987  44.23439381846042  60.189019688867674
 RC2    53.09929264919231  34.45420807393133  48.07464869146862
 RC2    4.591820293034628  11.34968710021297  69.8562447970527
 RC2    54.7415122138502  9.514831388693205  71.04511663415795
 RC2    12.07350490570894  30.71328269839108  35.10654055397627
 RC2    18.32209836552979  51.54102583508421  44.59723648440908
 RC2    48.56440040744415  66.97766881671637  85.79146528841035
 RC2    49.52918476879683  36.62563940170224  76.31286766735074
 RC2    63.70459677962631  54.47345131763146  67.79109376940995
 RC2    19.09014846602842  20.55060577662858  29.696195188645014
 RC2    43.53662575429376  38.30610178711638  62.63147731980032
 RC2    64.8647732041972  26.61861530058703  57.35814352419431
 RC2    41.52649692201685  21.44515672486511  43.66557186920077
 RC2    27.22750234478427  56.83713883355152  85.09137954021475
 RC2    49.91423706420386  21.62837292940785  33.6155991334033
 RC2    63.80898189582842  43.77369504554378  89.17979697570345
 RC2    29.48283262659945  6.522473503969785  82.11257520308641
 RC2    28.65976978553898  13.06909305561744  52.565727771886046
 RC2    24.6050307351272  45.11080364461312  76.26879579807071
 RC2    51.68752780541848  24.39751244276033  56.691050253054
 RC2    15.26709704316755  24.09889965709948  61.38396362658178
 RC2    58.81905559379969  29.05994330756121  84.2204959096148
 RC2    57.83894197128897  3.47681866869623  87.90762133370787
 RC2    58.36987868003931  16.05081397145704  63.482596758348464
 RC2    41.70891037843053  21.75838729267631  29.060243366664736
 RC2    4.814559368855028  59.73301820240724  85.64750026147098
 RC2    30.14016095414186  66.69506198769258  23.247087299080313
 RC2    65.88813106578539  34.39836572446648  49.26240251455505
 RC2    18.94740688702693  40.50320476432054  64.07325684565542
 RC2    24.55724539345488  70.23444354867901  29.01793405434481
 RC2    9.251354138813328  49.98414117485503  75.06192442332163
 RC2    44.38538690501193  29.3915574144393  87.65093319311185
 RC2    41.56923357299153  48.54919335325479  37.06323075079946
 RC2    63.71768421224221  35.15646680571133  73.41156143095054
 RC2    1.433258811986505  58.66338638474662  23.88535879791852
 RC2    11.64586517607316  67.78761858498237  40.23780057025534
 RC2    50.03868460935944  50.7276000868975  78.83906430811332
 RC2    0.8702660729241826  66.35244934127064  65.39789879864313
 RC2    53.49968918760177  69.90560184547111  26.68683537259462
 RC2    68.17541938056792  21.52205339699463  67.58841688304913
 RC2    66.63342310316068  0.5427305276418602  84.9317836856013
 RC2    46.96675897355545  48.80814357541042  23.57254037174538
 RC2    2.953452049253553  7.745682993726707  28.258837914571664
 RC2    15.06741567946745  11.77190501931541  29.032918558347895
 RC2    41.54229137002619  61.19252540585634  42.93675586482065
 RC2    5.686569388585247  36.07986329743979  44.31936618249516
 RC2    33.69325124530081  37.16252186634315  45.44532836073849
 RC2    8.230880815812094  58.13143275026089  71.2994265459019
 RC2    9.010945734995683  67.6386294038642  81.87142645660226
 RC2    8.1897719031353  1.292750025906096  20.021402296558456
 RC2    42.64866820943734  25.11250008154892  70.62205172827973
 RC2    35.05448333284976  19.69262001512035  25.20099968721855
 RC2    2.148159262949962  41.88889087422962  56.76186896032643
 RC2    50.64130265905435  60.09212505937266  71.36162804727309
 RC2    34.28977966274773  19.02892755815742  66.86183363909777
 RC2    64.8627301570039  66.0480782751413  28.33639520067759
 RC2    43.95691878492438  46.06649338137771  47.85580258329334
 RC2    69.94686502671551  9.579940377945292  42.06011622437166
 RC2    22.57545681522668  8.728050075444356  20.041118264654916
 RC2    51.04236187707501  7.916887779937778  38.48750135521897
 RC2    31.83949659561013  19.41752159310787  79.38218841455335
 RC2    56.5892250590194  41.57665933872224  59.50155179576108
 RC2    33.5175493392799  43.35027134004505  74.04896481204366
 RC2    24.02964914986322  20.93984641917673  40.36210159232809
 RC2    25.70761157784298  48.56829585943294  30.67775577901531
 RC2    54.30606042574176  25.67211687327528  69.87411694708231
 RC2    20.42831407892209  37.64335033850173  24.76842308677118
 RC2    59.53928391764715  50.02432827164127  23.09099656459732
 RC2    36.78298458097593  54.45157388118189  24.767628670846474
 RC2    3.175759206012129  25.49208394752293  33.936141078502494
 RC2    27.62935219151802  70.56238027517256  74.41352266591292
 RC2    55.51918760996911  45.26106466347071  81.37275809685215
 RC2    7.815061606892595  49.22734472737832  27.850986677679323
 RC2    68.39532781375414  70.25101046596563  50.93036605366995
 RC2    70.62968184539514  44.36328330164876  85.30794547343619
 RC2    33.29313430035693  20.74021853649707  55.1933965975882
 RC2    56.65759331833845  37.82380756464083  35.17218942939032
 RC2    60.4654028760229  43.10413898881473  69.51732681041749
 RC2    16.93786807782875  38.07517344947281  80.26870789458535
 RC2    51.53983365120933  70.60576294106765  52.35776663057506
 RC2    44.93279653101438  42.33156112260381  84.85326672563701
 RC2    15.15759504908209  22.28723561022532  80.16270185023147
 RC2    41.91251106839524  58.4866265182494  60.220332360183164
 RC2    8.452395782827267  60.16235432965325  35.23927879711187
 RC2    70.00254850058828  34.80839606272388  87.58810891400606
 RC2    70.17340697500721  6.597736816526809  73.71483146237745
 RC2    59.6329600538751  8.138532925787489  44.27250833259701
 RC2    27.06009675763793  27.15625035025926  88.79335623617355
 RC2    43.77444370135643  15.4539240039395  60.92510497878188
 RC2    6.948743140068873  20.85785837705196  88.01036769004257
 RC2    66.97499883467532  54.58523684599427  30.57009009492291
 RC2    47.01598779644615  35.30554671913115  31.87899773091705
 RC2    47.23235487008102  54.07222984423831  51.54699711504694
 RC2    12.88995075704507  25.39376969981925  42.6483395619192
 RC2    66.02466199999766  58.97044325882256  75.76819935157081
 RC2    12.56766688571431  10.48470031324446  38.57750261422032
 RC2    30.99113325896219  3.050376662148745  38.23107213531531
 RC2    63.40579328005384  66.28759152398099  58.47569001441904
 RC2    28.81851412333612  29.19099287110716  37.99319452717877
 RC2    26.72105877059008  12.68898550359011  62.51432952816373
 RC2    12.66386569838519  56.79073614778349  22.70532156787103
 RC2    6.838483899554618  49.26794032345789  62.39339147446167
 RC2    9.646639624522138  6.034412181359383  60.4831115752429
 RC2    58.34825407839721  57.45916184060675  86.8788456481782
 RC2    59.44735817687457  14.79148126466226  78.57246064207764
 RC2    10.99220173755098  66.68882316305204  68.1898503488204
 RC2    62.93774080466035  61.79885805551195  49.0065355961981
 RC2    24.2107421617891  27.48171054119082  67.52309846145363
 RC2    1.161923094828142  36.42936197242383  28.67922324628757
 RC2    13.00724697444794  46.02384595878281  34.74623224334217
 RC2    9.66250622064131  43.87673123166481  86.72687696053858
 RC2    21.84763609681418  9.423416257484693  50.91661626234474
 RC2    59.58019442971783  6.294864290807629  28.887560378301835
 RC2    32.05593523324946  8.943320727820053  69.87547403705119
 RC2    39.16026784857731  20.12847630333813  85.00854826642737
 RC2    39.31364688172901  41.16916055958878  53.069114470420416
 RC2    21.47928543110638  66.32324042676375  83.11459007637117
 RC2    19.0480802291714  37.67521447317816  39.21561350810849
 RC2    67.5853795452548  22.17772478036815  80.89869953426319
 RC2    22.86420172214613  62.05368928303371  51.94720766293869
 RC2    38.28650095021339  1.824657706324615  62.494587300741095
 RC2    3.833918117040158  35.1783252325135  61.24282911723005
 RC2    59.58287852470075  44.97721898346797  47.41021683342029
 RC2    61.76014145461676  25.10612092757807  34.71238771970068
 RC2    68.99926785617716  43.09461873140412  36.60505025845045
 RC2    43.18412266863258  10.65062106236158  50.25271691214006
 RC2    24.02956152430413  68.24057061806369  62.19265219000913
 RC2    42.0498926049349  61.82931248025042  19.96133517229833
 RC2    61.97625297343943  50.60863715892688  56.31076521475279
 RC2    44.6228589201518  14.18783431326823  74.28501615931422
 RC2    60.31270216609756  67.79504186541594  74.2354895766237
 RC2    4.859924694484421  57.67012238937668  50.07718060225948
 RC2    21.19263028125751  54.27819501460949  65.47253155396162
 RC2    2.084061521315193  42.18678470401298  69.90429601975039
 RC2    41.36043521605021  6.791493207998164  36.66045131891126
 RC2    56.21237314533477  69.03521360038286  64.03715289950146
 RC2    47.95276287652869  1.792190425246753  66.58156566223522
 RC2    33.33923750769568  66.6172528610512  38.97527384353724
 RC2    37.17852318280609  41.95435351418475  88.05256915170268
 RC2    55.11689525210235  26.53738936430926  44.34826983870573
 RC2    42.07923796893806  0.5316242072334878  74.9532429320217
 RC2    32.0078887690343  32.84863431165402  61.153330828657005
 RC2    12.69373319604052  13.39421396477032  51.55280268690019
 RC2    56.72676884685598  29.85387729357731  22.945819192313778
 RC2    32.13603978882264  54.82947654903258  49.0656287627954
 RC2    29.5152070277311  14.65747717878987  36.46982160861243
 RC2    70.88012503036919  11.25772039083321  86.9897456302974
 RC2    41.46877253380253  49.55259700440698  77.98859181375545
 RC2    48.72862357141097  51.47850973114441  63.973626331983084
 RC2    42.12632568075578  11.5802126677863  84.67907331821903
 RC2    9.169471838966414  48.08882190212645  48.33560340372793
 RC2    15.5189669146488  7.562931688364615  78.14471402522015
 RC2    58.05121597993614  16.30527484956018  50.24255509243949
 RC2    64.5922058458493  9.88455973571507  58.39496787022682
 RC2    30.21495857344146  55.98022428233687  74.25560373720896
 RC2    31.92870586959974  32.03679549290088  26.490305618596793
 RC2    16.71857770679457  52.60568579476184  87.82702264386454
 RC2    66.82181071514745  69.3992190881724  38.63251190357216
 RC2    57.64787757942597  32.58672827717835  62.19265872332574
 RC2    66.27230433806561  51.58238452283577  43.80513713094761
 RC2    58.79023558681889  17.66018649311809  23.276492898838015
 RC2    35.47443765656244  64.23175500659335  84.6226054457179
 RC2    53.03813906114228  61.3933526486672  27.647189132657545
 RC2    50.12315409057233  35.3760966575199  23.784305974633405
 RC2    20.28319447805655  32.78121246681066  53.92108768883937
 RC2    44.8919552266576  5.662788254675275  26.858641285758427
 RC2    33.67266276426447  41.17261282651481  31.261383486219962
 RC2    70.06022189465745  24.009939966464  23.106253520894857
 RC2    35.6578296512605  33.43158054822464  74.14673254953348
 RC2    29.10280111544368  46.46623103115261  87.89803855638283
 RC2    26.16044644395204  56.97857966898418  31.26061158867861
 RC2    54.67664139824665  62.51755043643318  43.2915958724772
 RC2    11.86297499311594  56.48438817863595  60.76578771931018
 RC2    20.50474169765608  22.21266602793907  51.34548729189908
 RC2    69.74779240726231  15.57166085404445  30.36261923913939
 RC2    24.38891007210348  31.26679518915937  79.38600723344489
 RC2    12.02811264336732  37.20304727643589  69.69518876730322
 RC2    15.86940907341358  66.38207559683494  24.972796129213222
 RC2    34.78822457627357  6.474348637209806  23.226197067269478
 RC2    30.5024816816137  58.54650948061872  63.303693250311476
 RC2    8.004845372564041  24.97221183142628  77.09626646562133
 RC2    16.23378748345003  11.7213902471688  70.61830344636795
 RC2    42.60814469427533  29.29782827248095  52.9514502758113
 RC2    21.60112358628705  17.97979977520881  86.3717920389854
 RC2    37.76648167850131  59.80012829923574  69.61923082595965
 RC2    23.94370087077512  41.59413043349645  54.150075098952
 RC2    16.46665645431811  69.0164915078023  51.09004763727933
 RC2    46.34996387011514  70.86312448328506  40.77895941444386
 RC2    12.20434263981045  33.50111695565336  21.887241748360914
 RC2    26.45871665003276  59.12313083872159  39.31295385098958
 RC2    5.806568543143589  25.16859216272366  48.0218649358662
 RC2    53.99291245966966  51.82146974444075  32.67747977073628
 RC2    8.157165219270688  69.3229959983495  49.95138932155795
 RN3    0.006762247848383385  16.8687672189385  55.37170481198468
 RN3    41.85669310902555  34.23637092554181  40.63071187931878
 RN3    66.26031901936372  16.72668597127496  40.45867936840133
 RN3    6.634315613234741  22.48834777687006  66.07849800539617
 RN3    51.74008003479813  14.6772831271902  20.439694713025574
 RN3    29.10491758428954  42.88168186405778  38.98257766281411
 RN3    36.74185236704812  69.24766789714704  51.921829395378154
 RN3    31.42630835122452  42.04587495465556  59.78339444994047
 RN3    51.61498096087639  33.04211915544232  46.70335453561852
 RN3    5.157098659399083  9.74345673866205  68.02597654079244
 RN3    54.70005398695725  8.360418525937593  73.22986913744683
 RN3    10.91248577482814  32.9296520139827  35.2269516554166
 RN3    16.35777187066082  52.89851447064154  44.07928944579512
 RN3    48.41208758853534  69.39555697196647  86.48090136470975
 RN3    48.96120518000949  34.77911924110805  77.91391568863021
 RN3    63.77590031212837  53.82562395148214  70.18706659062532
 RN3    17.89184807838073  20.64883565068805  27.60124180297268
 RN3    45.15232388950479  36.85978738666407  61.45853066127785
 RN3    66.01861879647838  25.25822462833318  55.71613370996729
 RN3    39.18519939053838  21.46360617942503  44.34884422630467
 RN3    25.65727226560966  58.28764028738023  83.95282729456484
 RN3    49.57397694830975  23.04256455677292  31.722561870436692
 RN3    64.94847634468543  44.04128449112276  20.40907123162991
 RN3    28.23522413904503  7.651458809004348  80.27010651645807
 RN3    28.32750632215572  14.89014798898489  50.89927791338762
 RN3    25.53481809913727  46.23846692081629  78.15061704584329
 RN3    54.0978176740224  23.66715803313279  56.924059674907696
 RN3    12.79230881758352  24.11883275711249  61.052828330654606
 RN3    58.95943337868042  30.77471271352821  82.48264295700686
 RN3    59.25112450930012  4.75525418215632  89.45895051147582
 RN3    60.12894803830718  14.27056892366771  63.552166857694836
 RN3    39.80679170424973  21.23243163450928  30.356601790564042
 RN3    4.248484567562072  61.48305313352353  87.20257517813458
 RN3    30.17337556454883  67.92746397264155  21.030441603454634
 RN3    65.51699975942968  36.63739571103194  50.44562646045396
 RN3    20.16456442925886  42.54804389555066  64.76217014363964
 RN3    23.39230673898112  68.2188018211837  29.86677572113165
 RN3    9.424666334531942  51.78777533072523  76.71926330257776
 RN3    45.76413897044051  27.30629918734721  87.50104587215505
 RN3    40.02095025538473  50.33364259974562  37.94136710408941
 RN3    65.05013366234789  36.31242696253128  75.08537017139432
 RN3    0.8560335756365867  61.08527204691045  24.193965896222554
 RN3    9.545857070988673  68.54956219648493  39.09919443453928
 RN3    48.27218523544296  52.16594959272585  79.82799625875259
 RN3    0.4311152105245118  65.36162772151548  63.15391761721953
 RN3    51.58997902991044  69.63083583697188  28.260222238786376
 RN3    66.56433499064441  21.37183101057787  69.43734464735698
 RN3    66.43583393488737  69.94970212167719  83.13409571100688
 RN3    47.23388263073203  46.85885291563282  25.036412287499942
 RN3    1.322952277865143  5.719670160828495  26.13982273685189
 RN3    16.43196625921454  12.49189016513425  30.853971397433718
 RN3    40.53609929106437  63.4444899650234  42.40241320311729
 RN3    3.64499895045401  37.29311255989556  43.96807228813392
 RN3    33.07168361601587  37.56449450760416  43.07279387040214
 RN3    10.57744128039685  57.29639432005601  71.06406429987382
 RN3    11.11182358370176  68.751555498383  81.25725375487899
 RN3    7.9373132123149  0.8192671299222586  22.445330141022033
 RN3    41.48899617976782  24.61755871434189  68.43386467341443
 RN3    35.84043878525365  18.04088337724907  23.53814312315831
 RN3    2.652410374530709  43.00695802413017  54.67548955257401
 RN3    52.1179167103737  58.96643333738423  69.76755160769167
 RN3    32.4744083251197  20.70479773434169  67.23673899904924
 RN3    66.5068067853018  65.9383694800317  30.07610523849537
 RN3    45.45958890539239  44.8021370798391  46.28229420561558
 RN3    0.01039406833766196  7.709656143519785  40.89459929499719
 RN3    23.16549929109792  9.295765038961303  88.75037327926921
 RN3    52.30621859703977  9.727080507317165  37.32998388227624
 RN3    29.51489622588529  18.75975269301343  79.08850679969797